[
    {
        "material_id": "mp-631",
        "formula": "TiC",
        "formation_energy_per_atom": -0.965351713333333,
        "is_stable": true,
        "symmetry": "crystal_system=<CrystalSystem.cubic: 'Cubic'> symbol='Fm-3m' hall=None number=225 point_group='m-3m' symprec=0.1 angle_tolerance=5.0 version='2.5.0'"
    },
    {
        "material_id": "mp-2795",
        "formula": "ZrC",
        "formation_energy_per_atom": -1.0136533575,
        "is_stable": true,
        "symmetry": "crystal_system=<CrystalSystem.cubic: 'Cubic'> symbol='Fm-3m' hall=None number=225 point_group='m-3m' symprec=0.1 angle_tolerance=5.0 version='2.5.0'"
    },
    {
        "material_id": "mp-21075",
        "formula": "HfC",
        "formation_energy_per_atom": -1.122896435000001,
        "is_stable": true,
        "symmetry": "crystal_system=<CrystalSystem.cubic: 'Cubic'> symbol='Fm-3m' hall=None number=225 point_group='m-3m' symprec=0.1 angle_tolerance=5.0 version='2.5.0'"
    },
    {
        "material_id": "mp-2760",
        "formula": "Nb6C5",
        "formation_energy_per_atom": -0.617065229090909,
        "is_stable": true,
        "symmetry": "crystal_system=<CrystalSystem.mono: 'Monoclinic'> symbol='C2/m' hall=None number=12 point_group='2/m' symprec=0.1 angle_tolerance=5.0 version='2.5.0'"
    },
    {
        "material_id": "mp-7088",
        "formula": "Ta2C",
        "formation_energy_per_atom": -0.679055604888887,
        "is_stable": true,
        "symmetry": "crystal_system=<CrystalSystem.trig: 'Trigonal'> symbol='P-3m1' hall=None number=164 point_group='-3m' symprec=0.1 angle_tolerance=5.0 version='2.5.0'"
    },
    {
        "material_id": "mp-1215174",
        "formula": "ZrTiC2",
        "note": "Ternary example"
    }
]