{
    "Al": {
        "atomic_number": 13,
        "name": "Aluminum",
        "group": 13,
        "period": 3,
        "mass": 26.9815,
        "rho": 2.70,
        "r": 1.43,
        "r_goldschmidt": 1.43,
        "vec": 3,
        "electronegativity_pauling": 1.61,
        "melting_point": 933.47,
        "shear_modulus_GPa": 26,
        "lattice_constant_angstrom": 4.05,
        "cte_micron_per_k": 23.1,
        "wettability_index_wc": 5
    },
    "Co": {
        "atomic_number": 27,
        "name": "Cobalt",
        "group": 9,
        "period": 4,
        "mass": 58.9331,
        "rho": 8.90,
        "r": 1.25,
        "r_goldschmidt": 1.25,
        "vec": 9,
        "electronegativity_pauling": 1.88,
        "melting_point": 1768.15,
        "shear_modulus_GPa": 75,
        "lattice_constant_angstrom": 3.54,
        "cte_micron_per_k": 13.0,
        "wettability_index_wc": 10
    },
    "Cr": {
        "atomic_number": 24,
        "name": "Chromium",
        "group": 6,
        "period": 4,
        "mass": 51.9961,
        "rho": 7.19,
        "r": 1.28,
        "r_goldschmidt": 1.28,
        "vec": 6,
        "electronegativity_pauling": 1.66,
        "melting_point": 2180.0,
        "shear_modulus_GPa": 115,
        "lattice_constant_angstrom": 2.91,
        "cte_micron_per_k": 4.9,
        "wettability_index_wc": 7
    },
    "Cu": {
        "atomic_number": 29,
        "name": "Copper",
        "group": 11,
        "period": 4,
        "mass": 63.546,
        "rho": 8.96,
        "r": 1.28,
        "r_goldschmidt": 1.28,
        "vec": 11,
        "electronegativity_pauling": 1.90,
        "melting_point": 1357.77,
        "shear_modulus_GPa": 48,
        "lattice_constant_angstrom": 3.61,
        "cte_micron_per_k": 16.5,
        "wettability_index_wc": 2
    },
    "Fe": {
        "atomic_number": 26,
        "name": "Iron",
        "group": 8,
        "period": 4,
        "mass": 55.845,
        "rho": 7.87,
        "r": 1.26,
        "r_goldschmidt": 1.26,
        "vec": 8,
        "electronegativity_pauling": 1.83,
        "melting_point": 1811.15,
        "shear_modulus_GPa": 82,
        "lattice_constant_angstrom": 2.87,
        "cte_micron_per_k": 11.8,
        "wettability_index_wc": 10
    },
    "Mn": {
        "atomic_number": 25,
        "name": "Manganese",
        "group": 7,
        "period": 4,
        "mass": 54.938,
        "rho": 7.21,
        "r": 1.27,
        "r_goldschmidt": 1.27,
        "vec": 7,
        "electronegativity_pauling": 1.55,
        "melting_point": 1519.15,
        "shear_modulus_GPa": 80,
        "lattice_constant_angstrom": 8.91,
        "cte_micron_per_k": 21.7,
        "wettability_index_wc": 8
    },
    "Ni": {
        "atomic_number": 28,
        "name": "Nickel",
        "group": 10,
        "period": 4,
        "mass": 58.6934,
        "rho": 8.90,
        "r": 1.24,
        "r_goldschmidt": 1.24,
        "vec": 10,
        "electronegativity_pauling": 1.91,
        "melting_point": 1728.15,
        "shear_modulus_GPa": 76,
        "lattice_constant_angstrom": 3.52,
        "cte_micron_per_k": 13.4,
        "wettability_index_wc": 10
    },
    "Ti": {
        "atomic_number": 22,
        "name": "Titanium",
        "group": 4,
        "period": 4,
        "mass": 47.867,
        "rho": 4.54,
        "r": 1.47,
        "r_goldschmidt": 1.47,
        "vec": 4,
        "electronegativity_pauling": 1.54,
        "melting_point": 1941.15,
        "shear_modulus_GPa": 45,
        "lattice_constant_angstrom": 2.95,
        "cte_micron_per_k": 8.6,
        "wettability_index_wc": 9
    },
    "V": {
        "atomic_number": 23,
        "name": "Vanadium",
        "group": 5,
        "period": 4,
        "mass": 50.9415,
        "rho": 6.11,
        "r": 1.34,
        "r_goldschmidt": 1.34,
        "vec": 5,
        "electronegativity_pauling": 1.63,
        "melting_point": 2183.15,
        "shear_modulus_GPa": 47,
        "lattice_constant_angstrom": 3.03,
        "cte_micron_per_k": 8.4,
        "wettability_index_wc": 9
    },
    "Zr": {
        "atomic_number": 40,
        "name": "Zirconium",
        "group": 4,
        "period": 5,
        "mass": 91.224,
        "rho": 6.52,
        "r": 1.60,
        "r_goldschmidt": 1.60,
        "vec": 4,
        "electronegativity_pauling": 1.33,
        "melting_point": 2128.15,
        "shear_modulus_GPa": 34,
        "lattice_constant_angstrom": 3.23,
        "cte_micron_per_k": 5.7,
        "wettability_index_wc": 9
    },
    "Nb": {
        "atomic_number": 41,
        "name": "Niobium",
        "group": 5,
        "period": 5,
        "mass": 92.906,
        "rho": 8.57,
        "r": 1.46,
        "r_goldschmidt": 1.46,
        "vec": 5,
        "electronegativity_pauling": 1.60,
        "melting_point": 2750.15,
        "shear_modulus_GPa": 38,
        "lattice_constant_angstrom": 3.30,
        "cte_micron_per_k": 7.3,
        "wettability_index_wc": 9
    },
    "Mo": {
        "atomic_number": 42,
        "name": "Molybdenum",
        "group": 6,
        "period": 5,
        "mass": 95.95,
        "rho": 10.28,
        "r": 1.39,
        "r_goldschmidt": 1.39,
        "vec": 6,
        "electronegativity_pauling": 2.16,
        "melting_point": 2896.15,
        "shear_modulus_GPa": 120,
        "lattice_constant_angstrom": 3.15,
        "cte_micron_per_k": 4.8,
        "wettability_index_wc": 8
    },
    "Hf": {
        "atomic_number": 72,
        "name": "Hafnium",
        "group": 4,
        "period": 6,
        "mass": 178.49,
        "rho": 13.31,
        "r": 1.59,
        "r_goldschmidt": 1.59,
        "vec": 4,
        "electronegativity_pauling": 1.3,
        "melting_point": 2506.15,
        "shear_modulus_GPa": 30,
        "lattice_constant_angstrom": 3.19,
        "cte_micron_per_k": 5.9,
        "wettability_index_wc": 9
    },
    "Ta": {
        "atomic_number": 73,
        "name": "Tantalum",
        "group": 5,
        "period": 6,
        "mass": 180.948,
        "rho": 16.69,
        "r": 1.46,
        "r_goldschmidt": 1.46,
        "vec": 5,
        "electronegativity_pauling": 1.5,
        "melting_point": 3290.15,
        "shear_modulus_GPa": 69,
        "lattice_constant_angstrom": 3.30,
        "cte_micron_per_k": 6.3,
        "wettability_index_wc": 9
    },
    "W": {
        "atomic_number": 74,
        "name": "Tungsten",
        "group": 6,
        "period": 6,
        "mass": 183.84,
        "rho": 19.3,
        "r": 1.39,
        "r_goldschmidt": 1.39,
        "vec": 6,
        "electronegativity_pauling": 2.36,
        "melting_point": 3695.15,
        "shear_modulus_GPa": 160,
        "lattice_constant_angstrom": 3.16,
        "cte_micron_per_k": 4.5,
        "wettability_index_wc": 8
    },
    "C": {
        "atomic_number": 6,
        "name": "Carbon",
        "group": 14,
        "period": 2,
        "mass": 12.011,
        "rho": 2.26,
        "r": 0.77,
        "r_goldschmidt": 0.77,
        "vec": 4,
        "electronegativity_pauling": 2.55,
        "melting_point": 3823.15,
        "shear_modulus_GPa": 480,
        "lattice_constant_angstrom": 3.57,
        "cte_micron_per_k": 5.2,
        "wettability_index_wc": 0
    },
    "N": {
        "atomic_number": 7,
        "name": "Nitrogen",
        "group": 15,
        "period": 2,
        "mass": 14.007,
        "rho": 0.00125,
        "r": 0.75,
        "r_goldschmidt": 0.71,
        "vec": 5,
        "electronegativity_pauling": 3.04,
        "melting_point": 63.15,
        "shear_modulus_GPa": 0,
        "lattice_constant_angstrom": 0,
        "cte_micron_per_k": 0,
        "wettability_index_wc": 0
    },
    "Si": {
        "atomic_number": 14,
        "name": "Silicon",
        "group": 14,
        "period": 3,
        "mass": 28.085,
        "rho": 2.33,
        "r": 1.18,
        "r_goldschmidt": 1.17,
        "vec": 4,
        "electronegativity_pauling": 1.90,
        "melting_point": 1687.15,
        "shear_modulus_GPa": 64,
        "lattice_constant_angstrom": 5.43,
        "cte_micron_per_k": 2.6,
        "wettability_index_wc": 4
    },
    "B": {
        "atomic_number": 5,
        "name": "Boron",
        "group": 13,
        "period": 2,
        "mass": 10.81,
        "rho": 2.34,
        "r": 0.90,
        "r_goldschmidt": 0.98,
        "vec": 3,
        "electronegativity_pauling": 2.04,
        "melting_point": 2349.15,
        "shear_modulus_GPa": 180,
        "lattice_constant_angstrom": 8.73,
        "cte_micron_per_k": 6.0,
        "wettability_index_wc": 4
    }
}